d 0.179848 1 3 tcp 1040 ------- 1 0.0 5.0 4 41
d -t 0.179848 -s 1 -d 3 -p tcp -e 1040 -c 1 -i 41 -a 1 -x {0.0 5.0 4 ------- null}
d 0.189448 1 3 tcp 1040 ------- 2 2.0 6.0 26 49
d -t 0.189448 -s 1 -d 3 -p tcp -e 1040 -c 2 -i 49 -a 2 -x {2.0 6.0 26 ------- null}
d 0.199816 1 3 tcp 1040 ------- 1 0.0 5.0 5 46
d -t 0.199816 -s 1 -d 3 -p tcp -e 1040 -c 1 -i 46 -a 1 -x {0.0 5.0 5 ------- null}
d 0.199848 1 3 tcp 1040 ------- 2 2.0 6.0 28 52
d -t 0.199848 -s 1 -d 3 -p tcp -e 1040 -c 2 -i 52 -a 2 -x {2.0 6.0 28 ------- null}
d 0.200648 1 3 tcp 1040 ------- 1 0.0 5.0 6 47
d -t 0.200648 -s 1 -d 3 -p tcp -e 1040 -c 1 -i 47 -a 1 -x {0.0 5.0 6 ------- null}
d 0.210248 1 3 tcp 1040 ------- 2 2.0 6.0 30 55
d -t 0.210248 -s 1 -d 3 -p tcp -e 1040 -c 2 -i 55 -a 2 -x {2.0 6.0 30 ------- null}
d 0.220648 1 3 tcp 1040 ------- 2 2.0 6.0 32 58
d -t 0.220648 -s 1 -d 3 -p tcp -e 1040 -c 2 -i 58 -a 2 -x {2.0 6.0 32 ------- null}
d 0.231048 1 3 tcp 1040 ------- 2 2.0 6.0 34 61
d -t 0.231048 -s 1 -d 3 -p tcp -e 1040 -c 2 -i 61 -a 2 -x {2.0 6.0 34 ------- null}
d 0.241448 1 3 tcp 1040 ------- 2 2.0 6.0 36 64
d -t 0.241448 -s 1 -d 3 -p tcp -e 1040 -c 2 -i 64 -a 2 -x {2.0 6.0 36 ------- null}
d 0.251848 1 3 tcp 1040 ------- 2 2.0 6.0 38 67
d -t 0.251848 -s 1 -d 3 -p tcp -e 1040 -c 2 -i 67 -a 2 -x {2.0 6.0 38 ------- null}
d 0.672968 1 3 tcp 1040 ------- 2 2.0 6.0 53 146
d -t 0.672968 -s 1 -d 3 -p tcp -e 1040 -c 2 -i 146 -a 2 -x {2.0 6.0 53 ------- null}
d 0.678344 1 3 tcp 1040 ------- 1 0.0 5.0 5 137
d -t 0.678344 -s 1 -d 3 -p tcp -e 1040 -c 1 -i 137 -a 1 -x {0.0 5.0 5 ------- null}
d 0.679176 1 3 tcp 1040 ------- 1 0.0 5.0 6 138
d -t 0.679176 -s 1 -d 3 -p tcp -e 1040 -c 1 -i 138 -a 1 -x {0.0 5.0 6 ------- null}
d 1.553032 1 3 tcp 1040 ------- 1 0.0 5.0 25 310
d -t 1.553032 -s 1 -d 3 -p tcp -e 1040 -c 1 -i 310 -a 1 -x {0.0 5.0 25 ------- null}
d 1.6666 1 3 tcp 1040 ------- 1 0.0 5.0 28 332
d -t 1.6666 -s 1 -d 3 -p tcp -e 1040 -c 1 -i 332 -a 1 -x {0.0 5.0 28 ------- null}
d 1.812232 1 3 tcp 1040 ------- 2 2.0 6.0 139 365
d -t 1.812232 -s 1 -d 3 -p tcp -e 1040 -c 2 -i 365 -a 2 -x {2.0 6.0 139 ------- null}
d 2.654888 1 3 tcp 1040 ------- 2 2.0 6.0 198 526
d -t 2.654888 -s 1 -d 3 -p tcp -e 1040 -c 2 -i 526 -a 2 -x {2.0 6.0 198 ------- null}
d 2.718088 1 3 tcp 1040 ------- 1 0.0 5.0 52 536
d -t 2.718088 -s 1 -d 3 -p tcp -e 1040 -c 1 -i 536 -a 1 -x {0.0 5.0 52 ------- null}
d 3.632456 1 3 tcp 1040 ------- 1 0.0 5.0 78 713
d -t 3.63245600000002 -s 1 -d 3 -p tcp -e 1040 -c 1 -i 713 -a 1 -x {0.0 5.0 78 ------- null}
d 3.726056 1 3 tcp 1040 ------- 1 0.0 5.0 81 732
d -t 3.72605600000002 -s 1 -d 3 -p tcp -e 1040 -c 1 -i 732 -a 1 -x {0.0 5.0 81 ------- null}
d 3.726088 1 3 tcp 1040 ------- 2 2.0 6.0 271 736
d -t 3.72608800000002 -s 1 -d 3 -p tcp -e 1040 -c 2 -i 736 -a 2 -x {2.0 6.0 271 ------- null}
d 5.987656 1 3 tcp 1040 ------- 1 0.0 5.0 260 1158
d -t 5.987656 -s 1 -d 3 -p tcp -e 1040 -c 1 -i 1158 -a 1 -x {0.0 5.0 260 ------- null}
