d 0.59308 1 3 tcp 1000 ------- 1 2.0 6.0 13 70
d -t 0.59308 -s 1 -d 3 -p tcp -e 1000 -c 1 -i 70 -a 1 -x {2.0 6.0 13 ------- null}
d 0.638504 1 3 tcp 1040 ------- 2 0.0 5.0 36 81
d -t 0.638504 -s 1 -d 3 -p tcp -e 1040 -c 2 -i 81 -a 2 -x {0.0 5.0 36 ------- null}
d 0.648904 1 3 tcp 1040 ------- 2 0.0 5.0 38 84
d -t 0.648904 -s 1 -d 3 -p tcp -e 1040 -c 2 -i 84 -a 2 -x {0.0 5.0 38 ------- null}
d 3.004088 1 3 tcp 1040 ------- 2 0.0 5.0 174 517
d -t 3.004088 -s 1 -d 3 -p tcp -e 1040 -c 2 -i 517 -a 2 -x {0.0 5.0 174 ------- null}
