d 0.563176 1 3 tcp 1040 ------- 2 2.0 6.0 22 72
d -t 0.563176 -s 1 -d 3 -p tcp -e 1040 -c 2 -i 72 -a 2 -x {2.0 6.0 22 ------- null}
d 0.573576 1 3 tcp 1040 ------- 1 0.0 5.0 24 75
d -t 0.573576 -s 1 -d 3 -p tcp -e 1040 -c 1 -i 75 -a 1 -x {0.0 5.0 24 ------- null}
d 0.583976 1 3 tcp 1040 ------- 1 0.0 5.0 26 78
d -t 0.583976 -s 1 -d 3 -p tcp -e 1040 -c 1 -i 78 -a 1 -x {0.0 5.0 26 ------- null}
d 0.594376 1 3 tcp 1040 ------- 1 0.0 5.0 28 81
d -t 0.594376 -s 1 -d 3 -p tcp -e 1040 -c 1 -i 81 -a 1 -x {0.0 5.0 28 ------- null}
d 0.604776 1 3 tcp 1040 ------- 1 0.0 5.0 30 84
d -t 0.604776 -s 1 -d 3 -p tcp -e 1040 -c 1 -i 84 -a 1 -x {0.0 5.0 30 ------- null}
d 0.615176 1 3 tcp 1040 ------- 2 2.0 6.0 24 87
d -t 0.615176 -s 1 -d 3 -p tcp -e 1040 -c 2 -i 87 -a 2 -x {2.0 6.0 24 ------- null}
d 0.625576 1 3 tcp 1040 ------- 2 2.0 6.0 26 90
d -t 0.625576 -s 1 -d 3 -p tcp -e 1040 -c 2 -i 90 -a 2 -x {2.0 6.0 26 ------- null}
d 0.635976 1 3 tcp 1040 ------- 2 2.0 6.0 28 93
d -t 0.635976 -s 1 -d 3 -p tcp -e 1040 -c 2 -i 93 -a 2 -x {2.0 6.0 28 ------- null}
d 0.646376 1 3 tcp 1040 ------- 2 2.0 6.0 30 96
d -t 0.646376 -s 1 -d 3 -p tcp -e 1040 -c 2 -i 96 -a 2 -x {2.0 6.0 30 ------- null}
d 0.656776 1 3 tcp 1040 ------- 1 0.0 5.0 32 99
d -t 0.656776 -s 1 -d 3 -p tcp -e 1040 -c 1 -i 99 -a 1 -x {0.0 5.0 32 ------- null}
d 0.667176 1 3 tcp 1040 ------- 1 0.0 5.0 34 102
d -t 0.667176 -s 1 -d 3 -p tcp -e 1040 -c 1 -i 102 -a 1 -x {0.0 5.0 34 ------- null}
d 0.677576 1 3 tcp 1040 ------- 1 0.0 5.0 36 105
d -t 0.677576 -s 1 -d 3 -p tcp -e 1040 -c 1 -i 105 -a 1 -x {0.0 5.0 36 ------- null}
d 0.687976 1 3 tcp 1040 ------- 1 0.0 5.0 38 108
d -t 0.687976 -s 1 -d 3 -p tcp -e 1040 -c 1 -i 108 -a 1 -x {0.0 5.0 38 ------- null}
d 0.739976 1 3 tcp 1040 ------- 2 2.0 6.0 32 119
d -t 0.739976 -s 1 -d 3 -p tcp -e 1040 -c 2 -i 119 -a 2 -x {2.0 6.0 32 ------- null}
d 0.750376 1 3 tcp 1040 ------- 2 2.0 6.0 34 122
d -t 0.750376 -s 1 -d 3 -p tcp -e 1040 -c 2 -i 122 -a 2 -x {2.0 6.0 34 ------- null}
d 0.760776 1 3 tcp 1040 ------- 2 2.0 6.0 36 125
d -t 0.760776 -s 1 -d 3 -p tcp -e 1040 -c 2 -i 125 -a 2 -x {2.0 6.0 36 ------- null}
d 0.771176 1 3 tcp 1040 ------- 2 2.0 6.0 38 128
d -t 0.771176 -s 1 -d 3 -p tcp -e 1040 -c 2 -i 128 -a 2 -x {2.0 6.0 38 ------- null}
d 2.164488 1 3 tcp 1040 ------- 2 2.0 6.0 75 351
d -t 2.164488 -s 1 -d 3 -p tcp -e 1040 -c 2 -i 351 -a 2 -x {2.0 6.0 75 ------- null}
d 2.310088 1 3 tcp 1040 ------- 1 0.0 5.0 92 380
d -t 2.310088 -s 1 -d 3 -p tcp -e 1040 -c 1 -i 380 -a 1 -x {0.0 5.0 92 ------- null}
d 4.3482 1 3 tcp 1040 ------- 1 0.0 5.0 176 731
d -t 4.34820000000002 -s 1 -d 3 -p tcp -e 1040 -c 1 -i 731 -a 1 -x {0.0 5.0 176 ------- null}
d 4.4834 1 3 tcp 1040 ------- 2 2.0 6.0 172 758
d -t 4.48340000000002 -s 1 -d 3 -p tcp -e 1040 -c 2 -i 758 -a 2 -x {2.0 6.0 172 ------- null}
d 6.414984 1 3 tcp 1040 ------- 2 2.0 6.0 256 1095
d -t 6.41498399999998 -s 1 -d 3 -p tcp -e 1040 -c 2 -i 1095 -a 2 -x {2.0 6.0 256 ------- null}
d 6.550184 1 3 tcp 1040 ------- 1 0.0 5.0 273 1122
d -t 6.55018399999998 -s 1 -d 3 -p tcp -e 1040 -c 1 -i 1122 -a 1 -x {0.0 5.0 273 ------- null}
