n -t 0 -s 2 -S DLABEL -l "paloma" -L ""
n -t 0 -s 0 -S DLABEL -l "jalama" -L ""
n -t 0 -s 1 -S DLABEL -l "balboa" -L ""
n -t 0 -s 3 -S DLABEL -l "condesa" -L ""
n -t 0 -s 4 -S DLABEL -l "alameda" -L ""
n -t 0 -s 6 -S DLABEL -l "montara" -L ""
n -t 0 -s 5 -S DLABEL -l "roqueta" -L ""
V -t * -v 1.0a5 -a 0
A -t * -n 1 -p 0 -o 0xffffffff -c 31 -a 1
A -t * -h 1 -m 2147483647 -s 0
c -t * -i 1 -n Blue
c -t * -i 2 -n Red
n -t * -a 4 -s 4 -S UP -v box -c black -i black
n -t * -a 0 -s 0 -S UP -v circle -c black -i black
n -t * -a 5 -s 5 -S UP -v circle -c black -i black
n -t * -a 1 -s 1 -S UP -v box -c black -i black
n -t * -a 6 -s 6 -S UP -v circle -c black -i black
n -t * -a 2 -s 2 -S UP -v circle -c black -i black
n -t * -a 3 -s 3 -S UP -v box -c black -i black
l -t * -s 0 -d 1 -S UP -r 10000000 -D 0.017000000000000001 -c black -o right-up
l -t * -s 2 -d 1 -S UP -r 10000000 -D 0.001 -c black -o right-down
l -t * -s 1 -d 3 -S UP -r 800000 -D 0.001 -c black -o right
l -t * -s 3 -d 4 -S UP -r 800000 -D 0.001 -c black -o right
l -t * -s 4 -d 5 -S UP -r 10000000 -D 0.001 -c black -o right-up
l -t * -s 4 -d 6 -S UP -r 10000000 -D 0.001 -c black -o right-down
q -t * -s 3 -d 4 -a -0.5
q -t * -s 4 -d 3 -a -0.5
q -t * -s 4 -d 5 -a -0.5
q -t * -s 5 -d 4 -a -0.5
q -t * -s 6 -d 4 -a -0.5
q -t * -s 4 -d 6 -a -0.5
q -t * -s 0 -d 1 -a -0.5
q -t * -s 1 -d 0 -a -0.5
q -t * -s 2 -d 1 -a -0.5
q -t * -s 1 -d 2 -a -0.5
q -t * -s 1 -d 3 -a -0.5
q -t * -s 3 -d 1 -a -0.5
+ 0 0 1 tcp 40 ------- 1 0.0 5.0 0 0
+ -t 0 -s 0 -d 1 -p tcp -e 40 -c 1 -i 0 -a 1 -x {0.0 5.0 0 ------- null}
- 0 0 1 tcp 40 ------- 1 0.0 5.0 0 0
- -t 0 -s 0 -d 1 -p tcp -e 40 -c 1 -i 0 -a 1 -x {0.0 5.0 0 ------- null}
h -t 0 -s 0 -d 1 -p tcp -e 40 -c 1 -i 0 -a 1 -x {0.0 5.0 -1 ------- null}
+ 0 2 1 tcp 40 ------- 2 2.0 6.0 0 1
+ -t 0 -s 2 -d 1 -p tcp -e 40 -c 2 -i 1 -a 2 -x {2.0 6.0 0 ------- null}
- 0 2 1 tcp 40 ------- 2 2.0 6.0 0 1
- -t 0 -s 2 -d 1 -p tcp -e 40 -c 2 -i 1 -a 2 -x {2.0 6.0 0 ------- null}
h -t 0 -s 2 -d 1 -p tcp -e 40 -c 2 -i 1 -a 2 -x {2.0 6.0 -1 ------- null}
r 0.001032 2 1 tcp 40 ------- 2 2.0 6.0 0 1
r -t 0.001032 -s 2 -d 1 -p tcp -e 40 -c 2 -i 1 -a 2 -x {2.0 6.0 0 ------- null}
+ 0.001032 1 3 tcp 40 ------- 2 2.0 6.0 0 1
+ -t 0.001032 -s 1 -d 3 -p tcp -e 40 -c 2 -i 1 -a 2 -x {2.0 6.0 0 ------- null}
- 0.001032 1 3 tcp 40 ------- 2 2.0 6.0 0 1
- -t 0.001032 -s 1 -d 3 -p tcp -e 40 -c 2 -i 1 -a 2 -x {2.0 6.0 0 ------- null}
h -t 0.001032 -s 1 -d 3 -p tcp -e 40 -c 2 -i 1 -a 2 -x {2.0 6.0 -1 ------- null}
r 0.002432 1 3 tcp 40 ------- 2 2.0 6.0 0 1
r -t 0.002432 -s 1 -d 3 -p tcp -e 40 -c 2 -i 1 -a 2 -x {2.0 6.0 0 ------- null}
+ 0.002432 3 4 tcp 40 ------- 2 2.0 6.0 0 1
+ -t 0.002432 -s 3 -d 4 -p tcp -e 40 -c 2 -i 1 -a 2 -x {2.0 6.0 0 ------- null}
- 0.002432 3 4 tcp 40 ------- 2 2.0 6.0 0 1
- -t 0.002432 -s 3 -d 4 -p tcp -e 40 -c 2 -i 1 -a 2 -x {2.0 6.0 0 ------- null}
h -t 0.002432 -s 3 -d 4 -p tcp -e 40 -c 2 -i 1 -a 2 -x {2.0 6.0 -1 ------- null}
r 0.003832 3 4 tcp 40 ------- 2 2.0 6.0 0 1
r -t 0.003832 -s 3 -d 4 -p tcp -e 40 -c 2 -i 1 -a 2 -x {2.0 6.0 0 ------- null}
+ 0.003832 4 6 tcp 40 ------- 2 2.0 6.0 0 1
+ -t 0.003832 -s 4 -d 6 -p tcp -e 40 -c 2 -i 1 -a 2 -x {2.0 6.0 0 ------- null}
- 0.003832 4 6 tcp 40 ------- 2 2.0 6.0 0 1
- -t 0.003832 -s 4 -d 6 -p tcp -e 40 -c 2 -i 1 -a 2 -x {2.0 6.0 0 ------- null}
h -t 0.003832 -s 4 -d 6 -p tcp -e 40 -c 2 -i 1 -a 2 -x {2.0 6.0 -1 ------- null}
r 0.004864 4 6 tcp 40 ------- 2 2.0 6.0 0 1
r -t 0.004864 -s 4 -d 6 -p tcp -e 40 -c 2 -i 1 -a 2 -x {2.0 6.0 0 ------- null}
+ 0.004864 6 4 ack 40 ------- 2 6.0 2.0 0 2
+ -t 0.004864 -s 6 -d 4 -p ack -e 40 -c 2 -i 2 -a 2 -x {6.0 2.0 0 ------- null}
- 0.004864 6 4 ack 40 ------- 2 6.0 2.0 0 2
- -t 0.004864 -s 6 -d 4 -p ack -e 40 -c 2 -i 2 -a 2 -x {6.0 2.0 0 ------- null}
h -t 0.004864 -s 6 -d 4 -p ack -e 40 -c 2 -i 2 -a 2 -x {6.0 2.0 -1 ------- null}
r 0.005896 6 4 ack 40 ------- 2 6.0 2.0 0 2
r -t 0.005896 -s 6 -d 4 -p ack -e 40 -c 2 -i 2 -a 2 -x {6.0 2.0 0 ------- null}
+ 0.005896 4 3 ack 40 ------- 2 6.0 2.0 0 2
+ -t 0.005896 -s 4 -d 3 -p ack -e 40 -c 2 -i 2 -a 2 -x {6.0 2.0 0 ------- null}
- 0.005896 4 3 ack 40 ------- 2 6.0 2.0 0 2
- -t 0.005896 -s 4 -d 3 -p ack -e 40 -c 2 -i 2 -a 2 -x {6.0 2.0 0 ------- null}
h -t 0.005896 -s 4 -d 3 -p ack -e 40 -c 2 -i 2 -a 2 -x {6.0 2.0 -1 ------- null}
r 0.007296 4 3 ack 40 ------- 2 6.0 2.0 0 2
r -t 0.007296 -s 4 -d 3 -p ack -e 40 -c 2 -i 2 -a 2 -x {6.0 2.0 0 ------- null}
+ 0.007296 3 1 ack 40 ------- 2 6.0 2.0 0 2
+ -t 0.007296 -s 3 -d 1 -p ack -e 40 -c 2 -i 2 -a 2 -x {6.0 2.0 0 ------- null}
- 0.007296 3 1 ack 40 ------- 2 6.0 2.0 0 2
- -t 0.007296 -s 3 -d 1 -p ack -e 40 -c 2 -i 2 -a 2 -x {6.0 2.0 0 ------- null}
h -t 0.007296 -s 3 -d 1 -p ack -e 40 -c 2 -i 2 -a 2 -x {6.0 2.0 -1 ------- null}
r 0.008696 3 1 ack 40 ------- 2 6.0 2.0 0 2
r -t 0.008696 -s 3 -d 1 -p ack -e 40 -c 2 -i 2 -a 2 -x {6.0 2.0 0 ------- null}
+ 0.008696 1 2 ack 40 ------- 2 6.0 2.0 0 2
+ -t 0.008696 -s 1 -d 2 -p ack -e 40 -c 2 -i 2 -a 2 -x {6.0 2.0 0 ------- null}
- 0.008696 1 2 ack 40 ------- 2 6.0 2.0 0 2
- -t 0.008696 -s 1 -d 2 -p ack -e 40 -c 2 -i 2 -a 2 -x {6.0 2.0 0 ------- null}
h -t 0.008696 -s 1 -d 2 -p ack -e 40 -c 2 -i 2 -a 2 -x {6.0 2.0 -1 ------- null}
r 0.009728 1 2 ack 40 ------- 2 6.0 2.0 0 2
r -t 0.009728 -s 1 -d 2 -p ack -e 40 -c 2 -i 2 -a 2 -x {6.0 2.0 0 ------- null}
+ 0.009728 2 1 tcp 1040 ------- 2 2.0 6.0 1 3
+ -t 0.009728 -s 2 -d 1 -p tcp -e 1040 -c 2 -i 3 -a 2 -x {2.0 6.0 1 ------- null}
- 0.009728 2 1 tcp 1040 ------- 2 2.0 6.0 1 3
- -t 0.009728 -s 2 -d 1 -p tcp -e 1040 -c 2 -i 3 -a 2 -x {2.0 6.0 1 ------- null}
h -t 0.009728 -s 2 -d 1 -p tcp -e 1040 -c 2 -i 3 -a 2 -x {2.0 6.0 -1 ------- null}
+ 0.009728 2 1 tcp 1040 ------- 2 2.0 6.0 2 4
+ -t 0.009728 -s 2 -d 1 -p tcp -e 1040 -c 2 -i 4 -a 2 -x {2.0 6.0 2 ------- null}
- 0.01056 2 1 tcp 1040 ------- 2 2.0 6.0 2 4
- -t 0.01056 -s 2 -d 1 -p tcp -e 1040 -c 2 -i 4 -a 2 -x {2.0 6.0 2 ------- null}
h -t 0.01056 -s 2 -d 1 -p tcp -e 1040 -c 2 -i 4 -a 2 -x {2.0 6.0 -1 ------- null}
r 0.01156 2 1 tcp 1040 ------- 2 2.0 6.0 1 3
r -t 0.01156 -s 2 -d 1 -p tcp -e 1040 -c 2 -i 3 -a 2 -x {2.0 6.0 1 ------- null}
+ 0.01156 1 3 tcp 1040 ------- 2 2.0 6.0 1 3
+ -t 0.01156 -s 1 -d 3 -p tcp -e 1040 -c 2 -i 3 -a 2 -x {2.0 6.0 1 ------- null}
- 0.01156 1 3 tcp 1040 ------- 2 2.0 6.0 1 3
- -t 0.01156 -s 1 -d 3 -p tcp -e 1040 -c 2 -i 3 -a 2 -x {2.0 6.0 1 ------- null}
h -t 0.01156 -s 1 -d 3 -p tcp -e 1040 -c 2 -i 3 -a 2 -x {2.0 6.0 -1 ------- null}
r 0.012392 2 1 tcp 1040 ------- 2 2.0 6.0 2 4
r -t 0.012392 -s 2 -d 1 -p tcp -e 1040 -c 2 -i 4 -a 2 -x {2.0 6.0 2 ------- null}
+ 0.012392 1 3 tcp 1040 ------- 2 2.0 6.0 2 4
+ -t 0.012392 -s 1 -d 3 -p tcp -e 1040 -c 2 -i 4 -a 2 -x {2.0 6.0 2 ------- null}
r 0.017032 0 1 tcp 40 ------- 1 0.0 5.0 0 0
r -t 0.017032 -s 0 -d 1 -p tcp -e 40 -c 1 -i 0 -a 1 -x {0.0 5.0 0 ------- null}
+ 0.017032 1 3 tcp 40 ------- 1 0.0 5.0 0 0
+ -t 0.017032 -s 1 -d 3 -p tcp -e 40 -c 1 -i 0 -a 1 -x {0.0 5.0 0 ------- null}
- 0.02196 1 3 tcp 1040 ------- 2 2.0 6.0 2 4
- -t 0.02196 -s 1 -d 3 -p tcp -e 1040 -c 2 -i 4 -a 2 -x {2.0 6.0 2 ------- null}
h -t 0.02196 -s 1 -d 3 -p tcp -e 1040 -c 2 -i 4 -a 2 -x {2.0 6.0 -1 ------- null}
r 0.02296 1 3 tcp 1040 ------- 2 2.0 6.0 1 3
r -t 0.02296 -s 1 -d 3 -p tcp -e 1040 -c 2 -i 3 -a 2 -x {2.0 6.0 1 ------- null}
+ 0.02296 3 4 tcp 1040 ------- 2 2.0 6.0 1 3
+ -t 0.02296 -s 3 -d 4 -p tcp -e 1040 -c 2 -i 3 -a 2 -x {2.0 6.0 1 ------- null}
- 0.02296 3 4 tcp 1040 ------- 2 2.0 6.0 1 3
- -t 0.02296 -s 3 -d 4 -p tcp -e 1040 -c 2 -i 3 -a 2 -x {2.0 6.0 1 ------- null}
h -t 0.02296 -s 3 -d 4 -p tcp -e 1040 -c 2 -i 3 -a 2 -x {2.0 6.0 -1 ------- null}
- 0.03236 1 3 tcp 40 ------- 1 0.0 5.0 0 0
- -t 0.03236 -s 1 -d 3 -p tcp -e 40 -c 1 -i 0 -a 1 -x {0.0 5.0 0 ------- null}
h -t 0.03236 -s 1 -d 3 -p tcp -e 40 -c 1 -i 0 -a 1 -x {0.0 5.0 -1 ------- null}
r 0.03336 1 3 tcp 1040 ------- 2 2.0 6.0 2 4
r -t 0.03336 -s 1 -d 3 -p tcp -e 1040 -c 2 -i 4 -a 2 -x {2.0 6.0 2 ------- null}
+ 0.03336 3 4 tcp 1040 ------- 2 2.0 6.0 2 4
+ -t 0.03336 -s 3 -d 4 -p tcp -e 1040 -c 2 -i 4 -a 2 -x {2.0 6.0 2 ------- null}
- 0.03336 3 4 tcp 1040 ------- 2 2.0 6.0 2 4
- -t 0.03336 -s 3 -d 4 -p tcp -e 1040 -c 2 -i 4 -a 2 -x {2.0 6.0 2 ------- null}
h -t 0.03336 -s 3 -d 4 -p tcp -e 1040 -c 2 -i 4 -a 2 -x {2.0 6.0 -1 ------- null}
r 0.03376 1 3 tcp 40 ------- 1 0.0 5.0 0 0
r -t 0.03376 -s 1 -d 3 -p tcp -e 40 -c 1 -i 0 -a 1 -x {0.0 5.0 0 ------- null}
+ 0.03376 3 4 tcp 40 ------- 1 0.0 5.0 0 0
+ -t 0.03376 -s 3 -d 4 -p tcp -e 40 -c 1 -i 0 -a 1 -x {0.0 5.0 0 ------- null}
r 0.03436 3 4 tcp 1040 ------- 2 2.0 6.0 1 3
r -t 0.03436 -s 3 -d 4 -p tcp -e 1040 -c 2 -i 3 -a 2 -x {2.0 6.0 1 ------- null}
+ 0.03436 4 6 tcp 1040 ------- 2 2.0 6.0 1 3
+ -t 0.03436 -s 4 -d 6 -p tcp -e 1040 -c 2 -i 3 -a 2 -x {2.0 6.0 1 ------- null}
- 0.03436 4 6 tcp 1040 ------- 2 2.0 6.0 1 3
- -t 0.03436 -s 4 -d 6 -p tcp -e 1040 -c 2 -i 3 -a 2 -x {2.0 6.0 1 ------- null}
h -t 0.03436 -s 4 -d 6 -p tcp -e 1040 -c 2 -i 3 -a 2 -x {2.0 6.0 -1 ------- null}
r 0.036192 4 6 tcp 1040 ------- 2 2.0 6.0 1 3
r -t 0.036192 -s 4 -d 6 -p tcp -e 1040 -c 2 -i 3 -a 2 -x {2.0 6.0 1 ------- null}
+ 0.036192 6 4 ack 40 ------- 2 6.0 2.0 1 5
+ -t 0.036192 -s 6 -d 4 -p ack -e 40 -c 2 -i 5 -a 2 -x {6.0 2.0 1 ------- null}
- 0.036192 6 4 ack 40 ------- 2 6.0 2.0 1 5
- -t 0.036192 -s 6 -d 4 -p ack -e 40 -c 2 -i 5 -a 2 -x {6.0 2.0 1 ------- null}
h -t 0.036192 -s 6 -d 4 -p ack -e 40 -c 2 -i 5 -a 2 -x {6.0 2.0 -1 ------- null}
r 0.037224 6 4 ack 40 ------- 2 6.0 2.0 1 5
r -t 0.037224 -s 6 -d 4 -p ack -e 40 -c 2 -i 5 -a 2 -x {6.0 2.0 1 ------- null}
+ 0.037224 4 3 ack 40 ------- 2 6.0 2.0 1 5
+ -t 0.037224 -s 4 -d 3 -p ack -e 40 -c 2 -i 5 -a 2 -x {6.0 2.0 1 ------- null}
- 0.037224 4 3 ack 40 ------- 2 6.0 2.0 1 5
- -t 0.037224 -s 4 -d 3 -p ack -e 40 -c 2 -i 5 -a 2 -x {6.0 2.0 1 ------- null}
h -t 0.037224 -s 4 -d 3 -p ack -e 40 -c 2 -i 5 -a 2 -x {6.0 2.0 -1 ------- null}
r 0.038624 4 3 ack 40 ------- 2 6.0 2.0 1 5
r -t 0.038624 -s 4 -d 3 -p ack -e 40 -c 2 -i 5 -a 2 -x {6.0 2.0 1 ------- null}
+ 0.038624 3 1 ack 40 ------- 2 6.0 2.0 1 5
+ -t 0.038624 -s 3 -d 1 -p ack -e 40 -c 2 -i 5 -a 2 -x {6.0 2.0 1 ------- null}
- 0.038624 3 1 ack 40 ------- 2 6.0 2.0 1 5
- -t 0.038624 -s 3 -d 1 -p ack -e 40 -c 2 -i 5 -a 2 -x {6.0 2.0 1 ------- null}
h -t 0.038624 -s 3 -d 1 -p ack -e 40 -c 2 -i 5 -a 2 -x {6.0 2.0 -1 ------- null}
r 0.040024 3 1 ack 40 ------- 2 6.0 2.0 1 5
r -t 0.040024 -s 3 -d 1 -p ack -e 40 -c 2 -i 5 -a 2 -x {6.0 2.0 1 ------- null}
+ 0.040024 1 2 ack 40 ------- 2 6.0 2.0 1 5
+ -t 0.040024 -s 1 -d 2 -p ack -e 40 -c 2 -i 5 -a 2 -x {6.0 2.0 1 ------- null}
- 0.040024 1 2 ack 40 ------- 2 6.0 2.0 1 5
- -t 0.040024 -s 1 -d 2 -p ack -e 40 -c 2 -i 5 -a 2 -x {6.0 2.0 1 ------- null}
h -t 0.040024 -s 1 -d 2 -p ack -e 40 -c 2 -i 5 -a 2 -x {6.0 2.0 -1 ------- null}
r 0.041056 1 2 ack 40 ------- 2 6.0 2.0 1 5
r -t 0.041056 -s 1 -d 2 -p ack -e 40 -c 2 -i 5 -a 2 -x {6.0 2.0 1 ------- null}
+ 0.041056 2 1 tcp 1040 ------- 2 2.0 6.0 3 6
+ -t 0.041056 -s 2 -d 1 -p tcp -e 1040 -c 2 -i 6 -a 2 -x {2.0 6.0 3 ------- null}
- 0.041056 2 1 tcp 1040 ------- 2 2.0 6.0 3 6
- -t 0.041056 -s 2 -d 1 -p tcp -e 1040 -c 2 -i 6 -a 2 -x {2.0 6.0 3 ------- null}
h -t 0.041056 -s 2 -d 1 -p tcp -e 1040 -c 2 -i 6 -a 2 -x {2.0 6.0 -1 ------- null}
+ 0.041056 2 1 tcp 1040 ------- 2 2.0 6.0 4 7
+ -t 0.041056 -s 2 -d 1 -p tcp -e 1040 -c 2 -i 7 -a 2 -x {2.0 6.0 4 ------- null}
- 0.041888 2 1 tcp 1040 ------- 2 2.0 6.0 4 7
- -t 0.041888 -s 2 -d 1 -p tcp -e 1040 -c 2 -i 7 -a 2 -x {2.0 6.0 4 ------- null}
h -t 0.041888 -s 2 -d 1 -p tcp -e 1040 -c 2 -i 7 -a 2 -x {2.0 6.0 -1 ------- null}
r 0.042888 2 1 tcp 1040 ------- 2 2.0 6.0 3 6
r -t 0.042888 -s 2 -d 1 -p tcp -e 1040 -c 2 -i 6 -a 2 -x {2.0 6.0 3 ------- null}
+ 0.042888 1 3 tcp 1040 ------- 2 2.0 6.0 3 6
+ -t 0.042888 -s 1 -d 3 -p tcp -e 1040 -c 2 -i 6 -a 2 -x {2.0 6.0 3 ------- null}
- 0.042888 1 3 tcp 1040 ------- 2 2.0 6.0 3 6
- -t 0.042888 -s 1 -d 3 -p tcp -e 1040 -c 2 -i 6 -a 2 -x {2.0 6.0 3 ------- null}
h -t 0.042888 -s 1 -d 3 -p tcp -e 1040 -c 2 -i 6 -a 2 -x {2.0 6.0 -1 ------- null}
r 0.04372 2 1 tcp 1040 ------- 2 2.0 6.0 4 7
r -t 0.04372 -s 2 -d 1 -p tcp -e 1040 -c 2 -i 7 -a 2 -x {2.0 6.0 4 ------- null}
+ 0.04372 1 3 tcp 1040 ------- 2 2.0 6.0 4 7
+ -t 0.04372 -s 1 -d 3 -p tcp -e 1040 -c 2 -i 7 -a 2 -x {2.0 6.0 4 ------- null}
- 0.04376 3 4 tcp 40 ------- 1 0.0 5.0 0 0
- -t 0.04376 -s 3 -d 4 -p tcp -e 40 -c 1 -i 0 -a 1 -x {0.0 5.0 0 ------- null}
h -t 0.04376 -s 3 -d 4 -p tcp -e 40 -c 1 -i 0 -a 1 -x {0.0 5.0 -1 ------- null}
r 0.04476 3 4 tcp 1040 ------- 2 2.0 6.0 2 4
r -t 0.04476 -s 3 -d 4 -p tcp -e 1040 -c 2 -i 4 -a 2 -x {2.0 6.0 2 ------- null}
+ 0.04476 4 6 tcp 1040 ------- 2 2.0 6.0 2 4
+ -t 0.04476 -s 4 -d 6 -p tcp -e 1040 -c 2 -i 4 -a 2 -x {2.0 6.0 2 ------- null}
- 0.04476 4 6 tcp 1040 ------- 2 2.0 6.0 2 4
- -t 0.04476 -s 4 -d 6 -p tcp -e 1040 -c 2 -i 4 -a 2 -x {2.0 6.0 2 ------- null}
h -t 0.04476 -s 4 -d 6 -p tcp -e 1040 -c 2 -i 4 -a 2 -x {2.0 6.0 -1 ------- null}
r 0.04516 3 4 tcp 40 ------- 1 0.0 5.0 0 0
r -t 0.04516 -s 3 -d 4 -p tcp -e 40 -c 1 -i 0 -a 1 -x {0.0 5.0 0 ------- null}
+ 0.04516 4 5 tcp 40 ------- 1 0.0 5.0 0 0
+ -t 0.04516 -s 4 -d 5 -p tcp -e 40 -c 1 -i 0 -a 1 -x {0.0 5.0 0 ------- null}
- 0.04516 4 5 tcp 40 ------- 1 0.0 5.0 0 0
- -t 0.04516 -s 4 -d 5 -p tcp -e 40 -c 1 -i 0 -a 1 -x {0.0 5.0 0 ------- null}
h -t 0.04516 -s 4 -d 5 -p tcp -e 40 -c 1 -i 0 -a 1 -x {0.0 5.0 -1 ------- null}
r 0.046192 4 5 tcp 40 ------- 1 0.0 5.0 0 0
r -t 0.046192 -s 4 -d 5 -p tcp -e 40 -c 1 -i 0 -a 1 -x {0.0 5.0 0 ------- null}
+ 0.046192 5 4 ack 40 ------- 1 5.0 0.0 0 8
+ -t 0.046192 -s 5 -d 4 -p ack -e 40 -c 1 -i 8 -a 1 -x {5.0 0.0 0 ------- null}
- 0.046192 5 4 ack 40 ------- 1 5.0 0.0 0 8
- -t 0.046192 -s 5 -d 4 -p ack -e 40 -c 1 -i 8 -a 1 -x {5.0 0.0 0 ------- null}
h -t 0.046192 -s 5 -d 4 -p ack -e 40 -c 1 -i 8 -a 1 -x {5.0 0.0 -1 ------- null}
r 0.046592 4 6 tcp 1040 ------- 2 2.0 6.0 2 4
r -t 0.046592 -s 4 -d 6 -p tcp -e 1040 -c 2 -i 4 -a 2 -x {2.0 6.0 2 ------- null}
+ 0.046592 6 4 ack 40 ------- 2 6.0 2.0 2 9
+ -t 0.046592 -s 6 -d 4 -p ack -e 40 -c 2 -i 9 -a 2 -x {6.0 2.0 2 ------- null}
- 0.046592 6 4 ack 40 ------- 2 6.0 2.0 2 9
- -t 0.046592 -s 6 -d 4 -p ack -e 40 -c 2 -i 9 -a 2 -x {6.0 2.0 2 ------- null}
h -t 0.046592 -s 6 -d 4 -p ack -e 40 -c 2 -i 9 -a 2 -x {6.0 2.0 -1 ------- null}
r 0.047224 5 4 ack 40 ------- 1 5.0 0.0 0 8
r -t 0.047224 -s 5 -d 4 -p ack -e 40 -c 1 -i 8 -a 1 -x {5.0 0.0 0 ------- null}
+ 0.047224 4 3 ack 40 ------- 1 5.0 0.0 0 8
+ -t 0.047224 -s 4 -d 3 -p ack -e 40 -c 1 -i 8 -a 1 -x {5.0 0.0 0 ------- null}
- 0.047224 4 3 ack 40 ------- 1 5.0 0.0 0 8
- -t 0.047224 -s 4 -d 3 -p ack -e 40 -c 1 -i 8 -a 1 -x {5.0 0.0 0 ------- null}
h -t 0.047224 -s 4 -d 3 -p ack -e 40 -c 1 -i 8 -a 1 -x {5.0 0.0 -1 ------- null}
r 0.047624 6 4 ack 40 ------- 2 6.0 2.0 2 9
r -t 0.047624 -s 6 -d 4 -p ack -e 40 -c 2 -i 9 -a 2 -x {6.0 2.0 2 ------- null}
+ 0.047624 4 3 ack 40 ------- 2 6.0 2.0 2 9
+ -t 0.047624 -s 4 -d 3 -p ack -e 40 -c 2 -i 9 -a 2 -x {6.0 2.0 2 ------- null}
- 0.047624 4 3 ack 40 ------- 2 6.0 2.0 2 9
- -t 0.047624 -s 4 -d 3 -p ack -e 40 -c 2 -i 9 -a 2 -x {6.0 2.0 2 ------- null}
h -t 0.047624 -s 4 -d 3 -p ack -e 40 -c 2 -i 9 -a 2 -x {6.0 2.0 -1 ------- null}
r 0.048624 4 3 ack 40 ------- 1 5.0 0.0 0 8
r -t 0.048624 -s 4 -d 3 -p ack -e 40 -c 1 -i 8 -a 1 -x {5.0 0.0 0 ------- null}
+ 0.048624 3 1 ack 40 ------- 1 5.0 0.0 0 8
+ -t 0.048624 -s 3 -d 1 -p ack -e 40 -c 1 -i 8 -a 1 -x {5.0 0.0 0 ------- null}
- 0.048624 3 1 ack 40 ------- 1 5.0 0.0 0 8
- -t 0.048624 -s 3 -d 1 -p ack -e 40 -c 1 -i 8 -a 1 -x {5.0 0.0 0 ------- null}
h -t 0.048624 -s 3 -d 1 -p ack -e 40 -c 1 -i 8 -a 1 -x {5.0 0.0 -1 ------- null}
r 0.049024 4 3 ack 40 ------- 2 6.0 2.0 2 9
r -t 0.049024 -s 4 -d 3 -p ack -e 40 -c 2 -i 9 -a 2 -x {6.0 2.0 2 ------- null}
+ 0.049024 3 1 ack 40 ------- 2 6.0 2.0 2 9
+ -t 0.049024 -s 3 -d 1 -p ack -e 40 -c 2 -i 9 -a 2 -x {6.0 2.0 2 ------- null}
- 0.049024 3 1 ack 40 ------- 2 6.0 2.0 2 9
- -t 0.049024 -s 3 -d 1 -p ack -e 40 -c 2 -i 9 -a 2 -x {6.0 2.0 2 ------- null}
h -t 0.049024 -s 3 -d 1 -p ack -e 40 -c 2 -i 9 -a 2 -x {6.0 2.0 -1 ------- null}
r 0.050024 3 1 ack 40 ------- 1 5.0 0.0 0 8
r -t 0.050024 -s 3 -d 1 -p ack -e 40 -c 1 -i 8 -a 1 -x {5.0 0.0 0 ------- null}
+ 0.050024 1 0 ack 40 ------- 1 5.0 0.0 0 8
+ -t 0.050024 -s 1 -d 0 -p ack -e 40 -c 1 -i 8 -a 1 -x {5.0 0.0 0 ------- null}
- 0.050024 1 0 ack 40 ------- 1 5.0 0.0 0 8
- -t 0.050024 -s 1 -d 0 -p ack -e 40 -c 1 -i 8 -a 1 -x {5.0 0.0 0 ------- null}
h -t 0.050024 -s 1 -d 0 -p ack -e 40 -c 1 -i 8 -a 1 -x {5.0 0.0 -1 ------- null}
r 0.050424 3 1 ack 40 ------- 2 6.0 2.0 2 9
r -t 0.050424 -s 3 -d 1 -p ack -e 40 -c 2 -i 9 -a 2 -x {6.0 2.0 2 ------- null}
+ 0.050424 1 2 ack 40 ------- 2 6.0 2.0 2 9
+ -t 0.050424 -s 1 -d 2 -p ack -e 40 -c 2 -i 9 -a 2 -x {6.0 2.0 2 ------- null}
- 0.050424 1 2 ack 40 ------- 2 6.0 2.0 2 9
- -t 0.050424 -s 1 -d 2 -p ack -e 40 -c 2 -i 9 -a 2 -x {6.0 2.0 2 ------- null}
h -t 0.050424 -s 1 -d 2 -p ack -e 40 -c 2 -i 9 -a 2 -x {6.0 2.0 -1 ------- null}
r 0.051456 1 2 ack 40 ------- 2 6.0 2.0 2 9
r -t 0.051456 -s 1 -d 2 -p ack -e 40 -c 2 -i 9 -a 2 -x {6.0 2.0 2 ------- null}
+ 0.051456 2 1 tcp 1040 ------- 2 2.0 6.0 5 10
+ -t 0.051456 -s 2 -d 1 -p tcp -e 1040 -c 2 -i 10 -a 2 -x {2.0 6.0 5 ------- null}
- 0.051456 2 1 tcp 1040 ------- 2 2.0 6.0 5 10
- -t 0.051456 -s 2 -d 1 -p tcp -e 1040 -c 2 -i 10 -a 2 -x {2.0 6.0 5 ------- null}
h -t 0.051456 -s 2 -d 1 -p tcp -e 1040 -c 2 -i 10 -a 2 -x {2.0 6.0 -1 ------- null}
+ 0.051456 2 1 tcp 1040 ------- 2 2.0 6.0 6 11
+ -t 0.051456 -s 2 -d 1 -p tcp -e 1040 -c 2 -i 11 -a 2 -x {2.0 6.0 6 ------- null}
- 0.052288 2 1 tcp 1040 ------- 2 2.0 6.0 6 11
- -t 0.052288 -s 2 -d 1 -p tcp -e 1040 -c 2 -i 11 -a 2 -x {2.0 6.0 6 ------- null}
h -t 0.052288 -s 2 -d 1 -p tcp -e 1040 -c 2 -i 11 -a 2 -x {2.0 6.0 -1 ------- null}
- 0.053288 1 3 tcp 1040 ------- 2 2.0 6.0 4 7
- -t 0.053288 -s 1 -d 3 -p tcp -e 1040 -c 2 -i 7 -a 2 -x {2.0 6.0 4 ------- null}
h -t 0.053288 -s 1 -d 3 -p tcp -e 1040 -c 2 -i 7 -a 2 -x {2.0 6.0 -1 ------- null}
r 0.053288 2 1 tcp 1040 ------- 2 2.0 6.0 5 10
r -t 0.053288 -s 2 -d 1 -p tcp -e 1040 -c 2 -i 10 -a 2 -x {2.0 6.0 5 ------- null}
+ 0.053288 1 3 tcp 1040 ------- 2 2.0 6.0 5 10
+ -t 0.053288 -s 1 -d 3 -p tcp -e 1040 -c 2 -i 10 -a 2 -x {2.0 6.0 5 ------- null}
r 0.05412 2 1 tcp 1040 ------- 2 2.0 6.0 6 11
r -t 0.05412 -s 2 -d 1 -p tcp -e 1040 -c 2 -i 11 -a 2 -x {2.0 6.0 6 ------- null}
+ 0.05412 1 3 tcp 1040 ------- 2 2.0 6.0 6 11
+ -t 0.05412 -s 1 -d 3 -p tcp -e 1040 -c 2 -i 11 -a 2 -x {2.0 6.0 6 ------- null}
r 0.054288 1 3 tcp 1040 ------- 2 2.0 6.0 3 6
r -t 0.054288 -s 1 -d 3 -p tcp -e 1040 -c 2 -i 6 -a 2 -x {2.0 6.0 3 ------- null}
+ 0.054288 3 4 tcp 1040 ------- 2 2.0 6.0 3 6
+ -t 0.054288 -s 3 -d 4 -p tcp -e 1040 -c 2 -i 6 -a 2 -x {2.0 6.0 3 ------- null}
- 0.054288 3 4 tcp 1040 ------- 2 2.0 6.0 3 6
- -t 0.054288 -s 3 -d 4 -p tcp -e 1040 -c 2 -i 6 -a 2 -x {2.0 6.0 3 ------- null}
h -t 0.054288 -s 3 -d 4 -p tcp -e 1040 -c 2 -i 6 -a 2 -x {2.0 6.0 -1 ------- null}
- 0.063688 1 3 tcp 1040 ------- 2 2.0 6.0 5 10
- -t 0.063688 -s 1 -d 3 -p tcp -e 1040 -c 2 -i 10 -a 2 -x {2.0 6.0 5 ------- null}
h -t 0.063688 -s 1 -d 3 -p tcp -e 1040 -c 2 -i 10 -a 2 -x {2.0 6.0 -1 ------- null}
r 0.064688 1 3 tcp 1040 ------- 2 2.0 6.0 4 7
r -t 0.064688 -s 1 -d 3 -p tcp -e 1040 -c 2 -i 7 -a 2 -x {2.0 6.0 4 ------- null}
+ 0.064688 3 4 tcp 1040 ------- 2 2.0 6.0 4 7
+ -t 0.064688 -s 3 -d 4 -p tcp -e 1040 -c 2 -i 7 -a 2 -x {2.0 6.0 4 ------- null}
- 0.064688 3 4 tcp 1040 ------- 2 2.0 6.0 4 7
- -t 0.064688 -s 3 -d 4 -p tcp -e 1040 -c 2 -i 7 -a 2 -x {2.0 6.0 4 ------- null}
h -t 0.064688 -s 3 -d 4 -p tcp -e 1040 -c 2 -i 7 -a 2 -x {2.0 6.0 -1 ------- null}
r 0.065688 3 4 tcp 1040 ------- 2 2.0 6.0 3 6
r -t 0.065688 -s 3 -d 4 -p tcp -e 1040 -c 2 -i 6 -a 2 -x {2.0 6.0 3 ------- null}
+ 0.065688 4 6 tcp 1040 ------- 2 2.0 6.0 3 6
+ -t 0.065688 -s 4 -d 6 -p tcp -e 1040 -c 2 -i 6 -a 2 -x {2.0 6.0 3 ------- null}
- 0.065688 4 6 tcp 1040 ------- 2 2.0 6.0 3 6
- -t 0.065688 -s 4 -d 6 -p tcp -e 1040 -c 2 -i 6 -a 2 -x {2.0 6.0 3 ------- null}
h -t 0.065688 -s 4 -d 6 -p tcp -e 1040 -c 2 -i 6 -a 2 -x {2.0 6.0 -1 ------- null}
r 0.067056 1 0 ack 40 ------- 1 5.0 0.0 0 8
r -t 0.067056 -s 1 -d 0 -p ack -e 40 -c 1 -i 8 -a 1 -x {5.0 0.0 0 ------- null}
+ 0.067056 0 1 tcp 1040 ------- 1 0.0 5.0 1 12
+ -t 0.067056 -s 0 -d 1 -p tcp -e 1040 -c 1 -i 12 -a 1 -x {0.0 5.0 1 ------- null}
- 0.067056 0 1 tcp 1040 ------- 1 0.0 5.0 1 12
- -t 0.067056 -s 0 -d 1 -p tcp -e 1040 -c 1 -i 12 -a 1 -x {0.0 5.0 1 ------- null}
h -t 0.067056 -s 0 -d 1 -p tcp -e 1040 -c 1 -i 12 -a 1 -x {0.0 5.0 -1 ------- null}
+ 0.067056 0 1 tcp 1040 ------- 1 0.0 5.0 2 13
+ -t 0.067056 -s 0 -d 1 -p tcp -e 1040 -c 1 -i 13 -a 1 -x {0.0 5.0 2 ------- null}
r 0.06752 4 6 tcp 1040 ------- 2 2.0 6.0 3 6
r -t 0.06752 -s 4 -d 6 -p tcp -e 1040 -c 2 -i 6 -a 2 -x {2.0 6.0 3 ------- null}
+ 0.06752 6 4 ack 40 ------- 2 6.0 2.0 3 14
+ -t 0.06752 -s 6 -d 4 -p ack -e 40 -c 2 -i 14 -a 2 -x {6.0 2.0 3 ------- null}
- 0.06752 6 4 ack 40 ------- 2 6.0 2.0 3 14
- -t 0.06752 -s 6 -d 4 -p ack -e 40 -c 2 -i 14 -a 2 -x {6.0 2.0 3 ------- null}
h -t 0.06752 -s 6 -d 4 -p ack -e 40 -c 2 -i 14 -a 2 -x {6.0 2.0 -1 ------- null}
- 0.067888 0 1 tcp 1040 ------- 1 0.0 5.0 2 13
- -t 0.067888 -s 0 -d 1 -p tcp -e 1040 -c 1 -i 13 -a 1 -x {0.0 5.0 2 ------- null}
h -t 0.067888 -s 0 -d 1 -p tcp -e 1040 -c 1 -i 13 -a 1 -x {0.0 5.0 -1 ------- null}
r 0.068552 6 4 ack 40 ------- 2 6.0 2.0 3 14
r -t 0.068552 -s 6 -d 4 -p ack -e 40 -c 2 -i 14 -a 2 -x {6.0 2.0 3 ------- null}
+ 0.068552 4 3 ack 40 ------- 2 6.0 2.0 3 14
+ -t 0.068552 -s 4 -d 3 -p ack -e 40 -c 2 -i 14 -a 2 -x {6.0 2.0 3 ------- null}
- 0.068552 4 3 ack 40 ------- 2 6.0 2.0 3 14
- -t 0.068552 -s 4 -d 3 -p ack -e 40 -c 2 -i 14 -a 2 -x {6.0 2.0 3 ------- null}
h -t 0.068552 -s 4 -d 3 -p ack -e 40 -c 2 -i 14 -a 2 -x {6.0 2.0 -1 ------- null}
r 0.069952 4 3 ack 40 ------- 2 6.0 2.0 3 14
r -t 0.069952 -s 4 -d 3 -p ack -e 40 -c 2 -i 14 -a 2 -x {6.0 2.0 3 ------- null}
+ 0.069952 3 1 ack 40 ------- 2 6.0 2.0 3 14
+ -t 0.069952 -s 3 -d 1 -p ack -e 40 -c 2 -i 14 -a 2 -x {6.0 2.0 3 ------- null}
- 0.069952 3 1 ack 40 ------- 2 6.0 2.0 3 14
- -t 0.069952 -s 3 -d 1 -p ack -e 40 -c 2 -i 14 -a 2 -x {6.0 2.0 3 ------- null}
h -t 0.069952 -s 3 -d 1 -p ack -e 40 -c 2 -i 14 -a 2 -x {6.0 2.0 -1 ------- null}
r 0.071352 3 1 ack 40 ------- 2 6.0 2.0 3 14
r -t 0.071352 -s 3 -d 1 -p ack -e 40 -c 2 -i 14 -a 2 -x {6.0 2.0 3 ------- null}
+ 0.071352 1 2 ack 40 ------- 2 6.0 2.0 3 14
+ -t 0.071352 -s 1 -d 2 -p ack -e 40 -c 2 -i 14 -a 2 -x {6.0 2.0 3 ------- null}
- 0.071352 1 2 ack 40 ------- 2 6.0 2.0 3 14
- -t 0.071352 -s 1 -d 2 -p ack -e 40 -c 2 -i 14 -a 2 -x {6.0 2.0 3 ------- null}
h -t 0.071352 -s 1 -d 2 -p ack -e 40 -c 2 -i 14 -a 2 -x {6.0 2.0 -1 ------- null}
r 0.072384 1 2 ack 40 ------- 2 6.0 2.0 3 14
r -t 0.072384 -s 1 -d 2 -p ack -e 40 -c 2 -i 14 -a 2 -x {6.0 2.0 3 ------- null}
+ 0.072384 2 1 tcp 1040 ------- 2 2.0 6.0 7 15
+ -t 0.072384 -s 2 -d 1 -p tcp -e 1040 -c 2 -i 15 -a 2 -x {2.0 6.0 7 ------- null}
- 0.072384 2 1 tcp 1040 ------- 2 2.0 6.0 7 15
- -t 0.072384 -s 2 -d 1 -p tcp -e 1040 -c 2 -i 15 -a 2 -x {2.0 6.0 7 ------- null}
h -t 0.072384 -s 2 -d 1 -p tcp -e 1040 -c 2 -i 15 -a 2 -x {2.0 6.0 -1 ------- null}
+ 0.072384 2 1 tcp 1040 ------- 2 2.0 6.0 8 16
+ -t 0.072384 -s 2 -d 1 -p tcp -e 1040 -c 2 -i 16 -a 2 -x {2.0 6.0 8 ------- null}
- 0.073216 2 1 tcp 1040 ------- 2 2.0 6.0 8 16
- -t 0.073216 -s 2 -d 1 -p tcp -e 1040 -c 2 -i 16 -a 2 -x {2.0 6.0 8 ------- null}
h -t 0.073216 -s 2 -d 1 -p tcp -e 1040 -c 2 -i 16 -a 2 -x {2.0 6.0 -1 ------- null}
- 0.074088 1 3 tcp 1040 ------- 2 2.0 6.0 6 11
- -t 0.074088 -s 1 -d 3 -p tcp -e 1040 -c 2 -i 11 -a 2 -x {2.0 6.0 6 ------- null}
h -t 0.074088 -s 1 -d 3 -p tcp -e 1040 -c 2 -i 11 -a 2 -x {2.0 6.0 -1 ------- null}
r 0.074216 2 1 tcp 1040 ------- 2 2.0 6.0 7 15
r -t 0.074216 -s 2 -d 1 -p tcp -e 1040 -c 2 -i 15 -a 2 -x {2.0 6.0 7 ------- null}
+ 0.074216 1 3 tcp 1040 ------- 2 2.0 6.0 7 15
+ -t 0.074216 -s 1 -d 3 -p tcp -e 1040 -c 2 -i 15 -a 2 -x {2.0 6.0 7 ------- null}
r 0.075048 2 1 tcp 1040 ------- 2 2.0 6.0 8 16
r -t 0.075048 -s 2 -d 1 -p tcp -e 1040 -c 2 -i 16 -a 2 -x {2.0 6.0 8 ------- null}
+ 0.075048 1 3 tcp 1040 ------- 2 2.0 6.0 8 16
+ -t 0.075048 -s 1 -d 3 -p tcp -e 1040 -c 2 -i 16 -a 2 -x {2.0 6.0 8 ------- null}
r 0.075088 1 3 tcp 1040 ------- 2 2.0 6.0 5 10
r -t 0.075088 -s 1 -d 3 -p tcp -e 1040 -c 2 -i 10 -a 2 -x {2.0 6.0 5 ------- null}
+ 0.075088 3 4 tcp 1040 ------- 2 2.0 6.0 5 10
+ -t 0.075088 -s 3 -d 4 -p tcp -e 1040 -c 2 -i 10 -a 2 -x {2.0 6.0 5 ------- null}
- 0.075088 3 4 tcp 1040 ------- 2 2.0 6.0 5 10
- -t 0.075088 -s 3 -d 4 -p tcp -e 1040 -c 2 -i 10 -a 2 -x {2.0 6.0 5 ------- null}
h -t 0.075088 -s 3 -d 4 -p tcp -e 1040 -c 2 -i 10 -a 2 -x {2.0 6.0 -1 ------- null}
r 0.076088 3 4 tcp 1040 ------- 2 2.0 6.0 4 7
r -t 0.076088 -s 3 -d 4 -p tcp -e 1040 -c 2 -i 7 -a 2 -x {2.0 6.0 4 ------- null}
+ 0.076088 4 6 tcp 1040 ------- 2 2.0 6.0 4 7
+ -t 0.076088 -s 4 -d 6 -p tcp -e 1040 -c 2 -i 7 -a 2 -x {2.0 6.0 4 ------- null}
- 0.076088 4 6 tcp 1040 ------- 2 2.0 6.0 4 7
- -t 0.076088 -s 4 -d 6 -p tcp -e 1040 -c 2 -i 7 -a 2 -x {2.0 6.0 4 ------- null}
h -t 0.076088 -s 4 -d 6 -p tcp -e 1040 -c 2 -i 7 -a 2 -x {2.0 6.0 -1 ------- null}
r 0.07792 4 6 tcp 1040 ------- 2 2.0 6.0 4 7
r -t 0.07792 -s 4 -d 6 -p tcp -e 1040 -c 2 -i 7 -a 2 -x {2.0 6.0 4 ------- null}
+ 0.07792 6 4 ack 40 ------- 2 6.0 2.0 4 17
+ -t 0.07792 -s 6 -d 4 -p ack -e 40 -c 2 -i 17 -a 2 -x {6.0 2.0 4 ------- null}
- 0.07792 6 4 ack 40 ------- 2 6.0 2.0 4 17
- -t 0.07792 -s 6 -d 4 -p ack -e 40 -c 2 -i 17 -a 2 -x {6.0 2.0 4 ------- null}
h -t 0.07792 -s 6 -d 4 -p ack -e 40 -c 2 -i 17 -a 2 -x {6.0 2.0 -1 ------- null}
r 0.078952 6 4 ack 40 ------- 2 6.0 2.0 4 17
r -t 0.078952 -s 6 -d 4 -p ack -e 40 -c 2 -i 17 -a 2 -x {6.0 2.0 4 ------- null}
+ 0.078952 4 3 ack 40 ------- 2 6.0 2.0 4 17
+ -t 0.078952 -s 4 -d 3 -p ack -e 40 -c 2 -i 17 -a 2 -x {6.0 2.0 4 ------- null}
- 0.078952 4 3 ack 40 ------- 2 6.0 2.0 4 17
- -t 0.078952 -s 4 -d 3 -p ack -e 40 -c 2 -i 17 -a 2 -x {6.0 2.0 4 ------- null}
h -t 0.078952 -s 4 -d 3 -p ack -e 40 -c 2 -i 17 -a 2 -x {6.0 2.0 -1 ------- null}
r 0.080352 4 3 ack 40 ------- 2 6.0 2.0 4 17
r -t 0.080352 -s 4 -d 3 -p ack -e 40 -c 2 -i 17 -a 2 -x {6.0 2.0 4 ------- null}
+ 0.080352 3 1 ack 40 ------- 2 6.0 2.0 4 17
+ -t 0.080352 -s 3 -d 1 -p ack -e 40 -c 2 -i 17 -a 2 -x {6.0 2.0 4 ------- null}
- 0.080352 3 1 ack 40 ------- 2 6.0 2.0 4 17
- -t 0.080352 -s 3 -d 1 -p ack -e 40 -c 2 -i 17 -a 2 -x {6.0 2.0 4 ------- null}
h -t 0.080352 -s 3 -d 1 -p ack -e 40 -c 2 -i 17 -a 2 -x {6.0 2.0 -1 ------- null}
r 0.081752 3 1 ack 40 ------- 2 6.0 2.0 4 17
r -t 0.081752 -s 3 -d 1 -p ack -e 40 -c 2 -i 17 -a 2 -x {6.0 2.0 4 ------- null}
+ 0.081752 1 2 ack 40 ------- 2 6.0 2.0 4 17
+ -t 0.081752 -s 1 -d 2 -p ack -e 40 -c 2 -i 17 -a 2 -x {6.0 2.0 4 ------- null}
- 0.081752 1 2 ack 40 ------- 2 6.0 2.0 4 17
- -t 0.081752 -s 1 -d 2 -p ack -e 40 -c 2 -i 17 -a 2 -x {6.0 2.0 4 ------- null}
h -t 0.081752 -s 1 -d 2 -p ack -e 40 -c 2 -i 17 -a 2 -x {6.0 2.0 -1 ------- null}
r 0.082784 1 2 ack 40 ------- 2 6.0 2.0 4 17
r -t 0.082784 -s 1 -d 2 -p ack -e 40 -c 2 -i 17 -a 2 -x {6.0 2.0 4 ------- null}
+ 0.082784 2 1 tcp 1040 ------- 2 2.0 6.0 9 18
+ -t 0.082784 -s 2 -d 1 -p tcp -e 1040 -c 2 -i 18 -a 2 -x {2.0 6.0 9 ------- null}
- 0.082784 2 1 tcp 1040 ------- 2 2.0 6.0 9 18
- -t 0.082784 -s 2 -d 1 -p tcp -e 1040 -c 2 -i 18 -a 2 -x {2.0 6.0 9 ------- null}
h -t 0.082784 -s 2 -d 1 -p tcp -e 1040 -c 2 -i 18 -a 2 -x {2.0 6.0 -1 ------- null}
+ 0.082784 2 1 tcp 1040 ------- 2 2.0 6.0 10 19
+ -t 0.082784 -s 2 -d 1 -p tcp -e 1040 -c 2 -i 19 -a 2 -x {2.0 6.0 10 ------- null}
- 0.083616 2 1 tcp 1040 ------- 2 2.0 6.0 10 19
- -t 0.083616 -s 2 -d 1 -p tcp -e 1040 -c 2 -i 19 -a 2 -x {2.0 6.0 10 ------- null}
h -t 0.083616 -s 2 -d 1 -p tcp -e 1040 -c 2 -i 19 -a 2 -x {2.0 6.0 -1 ------- null}
- 0.084488 1 3 tcp 1040 ------- 2 2.0 6.0 7 15
- -t 0.084488 -s 1 -d 3 -p tcp -e 1040 -c 2 -i 15 -a 2 -x {2.0 6.0 7 ------- null}
h -t 0.084488 -s 1 -d 3 -p tcp -e 1040 -c 2 -i 15 -a 2 -x {2.0 6.0 -1 ------- null}
r 0.084616 2 1 tcp 1040 ------- 2 2.0 6.0 9 18
r -t 0.084616 -s 2 -d 1 -p tcp -e 1040 -c 2 -i 18 -a 2 -x {2.0 6.0 9 ------- null}
+ 0.084616 1 3 tcp 1040 ------- 2 2.0 6.0 9 18
+ -t 0.084616 -s 1 -d 3 -p tcp -e 1040 -c 2 -i 18 -a 2 -x {2.0 6.0 9 ------- null}
r 0.084888 0 1 tcp 1040 ------- 1 0.0 5.0 1 12
r -t 0.084888 -s 0 -d 1 -p tcp -e 1040 -c 1 -i 12 -a 1 -x {0.0 5.0 1 ------- null}
+ 0.084888 1 3 tcp 1040 ------- 1 0.0 5.0 1 12
+ -t 0.084888 -s 1 -d 3 -p tcp -e 1040 -c 1 -i 12 -a 1 -x {0.0 5.0 1 ------- null}
r 0.085448 2 1 tcp 1040 ------- 2 2.0 6.0 10 19
r -t 0.085448 -s 2 -d 1 -p tcp -e 1040 -c 2 -i 19 -a 2 -x {2.0 6.0 10 ------- null}
+ 0.085448 1 3 tcp 1040 ------- 2 2.0 6.0 10 19
+ -t 0.085448 -s 1 -d 3 -p tcp -e 1040 -c 2 -i 19 -a 2 -x {2.0 6.0 10 ------- null}
r 0.085488 1 3 tcp 1040 ------- 2 2.0 6.0 6 11
r -t 0.085488 -s 1 -d 3 -p tcp -e 1040 -c 2 -i 11 -a 2 -x {2.0 6.0 6 ------- null}
+ 0.085488 3 4 tcp 1040 ------- 2 2.0 6.0 6 11
+ -t 0.085488 -s 3 -d 4 -p tcp -e 1040 -c 2 -i 11 -a 2 -x {2.0 6.0 6 ------- null}
- 0.085488 3 4 tcp 1040 ------- 2 2.0 6.0 6 11
- -t 0.085488 -s 3 -d 4 -p tcp -e 1040 -c 2 -i 11 -a 2 -x {2.0 6.0 6 ------- null}
h -t 0.085488 -s 3 -d 4 -p tcp -e 1040 -c 2 -i 11 -a 2 -x {2.0 6.0 -1 ------- null}
r 0.08572 0 1 tcp 1040 ------- 1 0.0 5.0 2 13
r -t 0.08572 -s 0 -d 1 -p tcp -e 1040 -c 1 -i 13 -a 1 -x {0.0 5.0 2 ------- null}
+ 0.08572 1 3 tcp 1040 ------- 1 0.0 5.0 2 13
+ -t 0.08572 -s 1 -d 3 -p tcp -e 1040 -c 1 -i 13 -a 1 -x {0.0 5.0 2 ------- null}
r 0.086488 3 4 tcp 1040 ------- 2 2.0 6.0 5 10
r -t 0.086488 -s 3 -d 4 -p tcp -e 1040 -c 2 -i 10 -a 2 -x {2.0 6.0 5 ------- null}
+ 0.086488 4 6 tcp 1040 ------- 2 2.0 6.0 5 10