d 0.648904 1 3 tcp 1040 ------- 1 0.0 5.0 38 84
d -t 0.648904 -s 1 -d 3 -p tcp -e 1040 -c 1 -i 84 -a 1 -x {0.0 5.0 38 ------- null}
d 0.903672 1 3 tcp 1040 ------- 1 0.0 5.0 52 139
d -t 0.903671999999999 -s 1 -d 3 -p tcp -e 1040 -c 1 -i 139 -a 1 -x {0.0 5.0 52 ------- null}
d 0.934472 1 3 tcp 1040 ------- 1 0.0 5.0 54 146
d -t 0.934471999999999 -s 1 -d 3 -p tcp -e 1040 -c 1 -i 146 -a 1 -x {0.0 5.0 54 ------- null}
d 4.52436 1 3 tcp 1040 ------- 1 0.0 5.0 213 843
d -t 4.52435999999999 -s 1 -d 3 -p tcp -e 1040 -c 1 -i 843 -a 1 -x {0.0 5.0 213 ------- null}
